# vtk DataFile Version 3.98
Delaunay_vtk
ASCII
DATASET UNSTRUCTURED_GRID
POINTS 212 float
 0.090970 1.470975 0.438989
 -0.712653 0.269184 -0.456154
 0.866099 0.724180 -0.031545
 0.054772 -0.079302 -0.739443
 -0.032745 -0.526258 -0.097479
 0.795521 0.171189 -0.102754
 0.553657 0.437460 0.572538
 -0.167652 0.243780 0.809464
 -1.250805 0.717848 -0.206169
 0.423392 -0.394325 0.117616
 -0.130854 1.233250 -0.562741
 0.537368 0.449591 -0.602675
 -0.031451 1.451956 -0.373868
 -0.095418 0.717316 -0.670782
 0.446822 0.894632 0.782207
 0.080584 -0.344500 -0.505889
 0.020605 1.552235 0.162253
 1.037143 0.682801 -0.102167
 -0.937629 1.369432 -0.367662
 0.608261 -0.230499 0.123097
 0.628683 1.288758 -0.572191
 0.688214 0.109827 -0.409200
 -0.429115 0.488432 -0.694104
 0.706806 -0.097541 -0.093576
 0.027218 1.382457 -0.517039
 0.149991 -0.186106 -0.650553
 0.470798 1.493059 0.438293
 -1.277411 0.924327 0.126461
 -0.878383 0.528230 0.588474
 -0.120848 0.457149 0.786929
 0.568619 1.405518 -0.496014
 0.615329 -0.079733 -0.390313
 0.274234 -0.473153 -0.096897
 0.152685 1.543458 0.320460
 -0.800630 0.622433 -0.680703
 0.120804 -0.174873 0.653201
 -0.473967 0.460940 0.666774
 0.799578 0.928892 0.609918
 -1.070351 0.824415 0.541550
 -0.880175 1.155871 -0.613637
 0.258465 1.156539 0.751258
 -0.833162 1.122692 0.640190
 0.843422 0.711541 0.530909
 0.044540 1.583898 0.019892
 -0.506183 -0.356181 0.136595
 -1.142542 1.288543 -0.022983
 -0.960734 1.426563 0.189594
 -0.822082 1.354808 0.467937
 -1.023311 0.864311 -0.592886
 -0.119649 1.036773 -0.664336
 0.987173 1.236543 0.118151
 0.779358 0.345976 0.212707
 0.184961 0.154001 0.787732
 -0.325960 1.504446 -0.153206
 0.205273 0.578108 0.724001
 0.674036 0.824050 -0.673762
 -0.185921 0.264321 -0.815598
 -0.497630 1.172594 -0.701312
 -0.846008 0.165133 -0.029356
 -0.120491 -0.438306 -0.362108
 -0.240477 -0.159622 -0.652000
 0.298761 -0.373012 -0.364762
 -0.557029 1.481433 -0.417260
 0.379076 1.556739 0.324791
 -0.486069 1.553620 -0.241786
 -0.166161 1.522079 -0.125305
 -1.106672 0.410213 -0.180454
 -0.493508 1.135478 0.705658
 -0.322406 -0.331306 -0.438263
 0.182779 1.445912 -0.494233
 0.081716 1.542965 -0.250726
 -0.095601 0.493245 -0.788037
 -0.108181 1.466295 -0.154872
 0.982450 0.633239 0.239705
 -0.509845 1.433252 0.469120
 -0.018726 1.505757 -0.256144
 0.459162 1.611177 0.079554
 0.695187 1.497172 -0.202910
 0.791399 1.467044 0.121783
 0.548205 1.565855 -0.164723
 -0.003804 1.556342 -0.080192
 0.355025 1.457087 -0.487576
 0.355925 1.546839 -0.329939
 0.174686 1.526806 -0.355103
 -0.672265 -0.219511 -0.041746
 -0.737786 1.557247 0.071196
 -0.146577 1.342322 0.453415
 -0.051331 1.512409 0.210192
 0.535692 0.470330 -0.598303
 0.357741 -0.179033 0.550607
 -0.032938 1.460498 0.367150
 -0.447891 1.536803 0.259351
 -0.757729 0.243467 0.390004
 0.406885 -0.214151 -0.498945
 1.051408 1.002244 -0.189169
 -0.138465 1.028517 0.673878
 0.756681 0.058307 0.158403
 -0.514931 0.153135 -0.653365
 -0.143190 1.174408 0.600142
 0.169807 1.339314 0.637640
 0.558373 1.310042 0.606776
 0.858390 1.177887 0.466405
 0.515081 1.473730 0.454215
 -0.803320 0.014225 0.032009
 -0.557675 -0.233656 -0.334364
 -0.487254 -0.050175 -0.587283
 -0.942162 0.435007 -0.472182
 -0.205600 -0.498814 0.121771
 0.088636 -0.360605 0.476193
 0.307145 -0.358210 0.372107
 0.187619 0.172207 -0.803874
 0.572168 -0.107018 0.411079
 0.538392 0.298153 -0.630826
 0.175919 0.617096 -0.720914
 0.525850 0.241202 0.621635
 0.628702 0.036190 0.441034
 0.043851 -0.080637 0.727531
 -0.232903 -0.154158 0.646538
 -0.451763 -0.058596 0.599581
 -0.499895 -0.240231 0.385917
 -0.295869 -0.307593 0.470293
 -0.108094 -0.425179 0.378054
 -0.500963 0.112409 0.648369
 -0.751340 0.217530 0.398366
 0.360834 0.920970 -0.778434
 0.859962 1.059974 -0.511265
 -0.115240 0.701501 0.669791
 0.243830 1.222344 -0.715964
 0.777003 0.359819 -0.257408
 -0.137608 1.379127 -0.406661
 -0.146809 1.470769 0.197964
 -0.095677 1.512721 -0.074834
 -0.384246 0.484803 0.023270
 -0.200415 0.046464 -0.775290
 -0.426024 0.459209 -0.703316
 -0.401471 -0.200578 0.511772
 -0.711652 -0.015728 -0.347012
 -0.921750 0.300471 -0.294415
 0.764422 0.248583 0.273737
 0.708878 -0.039938 0.188421
 0.209939 0.375691 0.784956
 0.378627 -0.013023 0.656374
 -0.176435 0.039888 0.767248
 -0.466829 0.389414 0.685727
 -0.102290 -0.274769 -0.589230
 -0.378053 -0.440295 -0.153812
 -0.333245 -0.391914 0.303594
 -0.421666 -0.202277 -0.505317
 -0.098189 -0.267834 0.584609
 0.224938 -0.257050 0.541250
 0.476248 -0.258148 0.346541
 0.124231 -0.499222 0.192784
 -0.677865 -0.091072 0.335561
 -0.811864 0.135107 0.107065
 0.221951 -0.272289 -0.537509
 0.189609 0.384781 -0.800081
 0.414930 -0.005715 -0.655645
 0.778809 0.341825 -0.261349
 0.744925 0.001833 -0.136376
 0.526767 -0.308683 -0.191385
 0.118406 -0.453669 -0.306410
 -0.142863 1.127094 0.008284
 -0.738664 0.447636 -0.601360
 -1.188829 1.086922 -0.301633
 -0.863870 1.503745 -0.135032
 -0.258388 1.112801 0.659893
 0.120586 0.885562 0.777895
 -1.057268 0.585234 -0.467485
 0.324886 0.490478 -0.019976
 0.598050 1.134868 0.683622
 0.564818 0.705986 0.711577
 -0.564866 0.877796 -0.795837
 -0.554612 1.383616 -0.552999
 -0.123420 0.601648 0.725151
 -0.601827 0.818373 0.782485
 -0.509979 1.312072 0.604384
 -0.703360 0.410879 0.548417
 0.901222 0.701898 -0.452722
 0.443705 0.717148 -0.729152
 -0.249378 1.147539 -0.642796
 0.100050 0.923835 -0.759706
 -1.160901 0.469520 0.221818
 -1.103358 1.178657 0.363597
 -0.715113 1.493024 0.306997
 -0.104327 0.634470 -0.720173
 0.562968 0.653584 -0.455566
 -0.123339 1.500365 -0.118337
 0.058355 1.485748 -0.379431
 -0.085076 1.472427 -0.259027
 0.182429 1.323400 0.654835
 0.261979 1.498195 0.439580
 0.627360 1.557549 0.114161
 0.037389 1.520618 0.289461
 -0.111526 1.457262 0.275434
 0.788140 1.352305 0.371416
 -0.088138 1.375244 -0.448795
 -0.013422 1.531646 -0.167767
 -0.077674 1.524856 0.054013
 -0.030874 1.363413 0.515415
 0.486057 1.516226 -0.349225
 0.887901 1.327354 -0.260417
 0.185940 1.575641 0.238370
 0.226814 1.263108 -0.693846
 0.250765 1.582864 -0.255568
 0.255334 1.513383 -0.392379
 -0.343795 1.475493 0.346420
 0.575041 1.089760 -0.694114
 1.049056 0.926162 0.250412
 0.823900 0.535716 0.414614
 0.938028 0.501825 0.022113
 -0.346985 1.499176 -0.302424
 -0.331496 1.561306 0.047637
CELLS 452 1808
3 58 92 132
3 92 36 132
3 36 126 132
3 126 13 132
3 13 22 132
3 22 1 132
3 1 58 132
3 6 51 168
3 51 128 168
3 128 88 168
3 88 113 168
3 113 13 168
3 13 126 168
3 126 54 168
3 54 6 168
3 3 60 133
3 60 105 133
3 105 97 133
3 97 56 133
3 56 110 133
3 110 3 133
3 1 22 134
3 22 71 134
3 71 56 134
3 56 97 134
3 97 1 134
3 117 118 135
3 118 119 135
3 119 120 135
3 120 117 135
3 97 105 136
3 105 104 136
3 104 84 136
3 84 103 136
3 103 58 136
3 58 1 136
3 1 97 136
3 5 51 138
3 51 6 138
3 6 114 138
3 114 115 138
3 115 96 138
3 96 5 138
3 19 23 139
3 23 96 139
3 96 115 139
3 115 111 139
3 111 19 139
3 113 71 184
3 71 22 184
3 22 13 184
3 13 113 184
3 6 54 140
3 54 29 140
3 29 7 140
3 7 52 140
3 52 114 140
3 114 6 140
3 35 89 141
3 89 111 141
3 111 115 141
3 115 114 141
3 114 52 141
3 52 116 141
3 116 35 141
3 54 126 173
3 126 36 173
3 36 29 173
3 29 54 173
3 122 118 142
3 118 117 142
3 117 116 142
3 116 52 142
3 52 7 142
3 7 122 142
3 7 29 143
3 29 36 143
3 36 92 143
3 92 123 143
3 123 122 143
3 122 7 143
3 3 25 144
3 25 15 144
3 15 59 144
3 59 68 144
3 68 60 144
3 60 3 144
3 11 88 128
3 107 44 145
3 44 84 145
3 84 104 145
3 104 68 145
3 68 59 145
3 59 4 145
3 4 107 145
3 44 107 146
3 107 121 146
3 121 120 146
3 120 119 146
3 119 44 146
3 60 68 147
3 68 104 147
3 104 105 147
3 105 60 147
3 116 117 148
3 117 120 148
3 120 121 148
3 121 108 148
3 108 35 148
3 35 116 148
3 108 109 149
3 109 89 149
3 89 35 149
3 35 108 149
3 9 19 150
3 19 111 150
3 111 89 150
3 89 109 150
3 109 9 150
3 4 32 151
3 32 9 151
3 9 109 151
3 109 108 151
3 108 121 151
3 121 107 151
3 107 4 151
3 119 118 152
3 118 122 152
3 122 123 152
3 123 103 152
3 103 84 152
3 84 44 152
3 44 119 152
3 103 123 153
3 123 92 153
3 92 58 153
3 58 103 153
3 15 25 154
3 25 93 154
3 93 61 154
3 61 15 154
3 112 110 155
3 110 56 155
3 56 71 155
3 71 113 155
3 113 88 155
3 88 11 155
3 11 112 155
3 110 112 156
3 112 21 156
3 21 31 156
3 31 93 156
3 93 25 156
3 25 3 156
3 3 110 156
3 5 21 157
3 21 112 157
3 112 11 157
3 11 128 157
3 128 51 157
3 51 5 157
3 96 23 158
3 23 31 158
3 31 21 158
3 21 5 158
3 5 96 158
3 32 61 159
3 61 93 159
3 93 31 159
3 31 23 159
3 23 19 159
3 19 9 159
3 9 32 159
3 59 15 160
3 15 61 160
3 61 32 160
3 32 4 160
3 4 59 160
3 1 22 132
3 22 13 132
3 13 126 132
3 126 36 132
3 36 92 132
3 92 58 132
3 58 1 132
3 129 72 161
3 72 131 161
3 131 130 161
3 130 86 161
3 86 98 161
3 98 95 161
3 95 126 161
3 126 13 161
3 13 49 161
3 49 10 161
3 10 129 161
3 106 34 162
3 34 22 162
3 22 1 162
3 1 106 162
3 8 27 163
3 27 45 163
3 45 18 163
3 18 39 163
3 39 48 163
3 48 8 163
3 18 45 164
3 45 46 164
3 46 85 164
3 85 64 164
3 64 62 164
3 62 18 164
3 62 64 210
3 64 65 210
3 65 72 210
3 72 129 210
3 129 62 210
3 67 95 98
3 1 58 137
3 58 66 137
3 66 106 137
3 106 1 137
3 8 48 167
3 48 34 167
3 34 106 167
3 106 66 167
3 66 8 167
3 74 86 205
3 86 130 205
3 130 91 205
3 91 74 205
3 13 22 171
3 22 34 171
3 34 48 171
3 48 39 171
3 39 57 171
3 57 49 171
3 49 13 171
3 10 57 172
3 57 39 172
3 39 18 172
3 18 62 172
3 62 129 172
3 129 10 172
3 131 72 65
3 85 91 211
3 91 130 211
3 130 131 211
3 131 65 211
3 65 64 211
3 64 85 211
3 28 36 174
3 36 126 174
3 126 95 174
3 95 67 174
3 67 41 174
3 41 38 174
3 38 28 174
3 67 98 175
3 98 86 175
3 86 74 175
3 74 47 175
3 47 41 175
3 41 67 175
3 92 36 28
3 10 49 57
3 66 58 181
3 58 92 181
3 92 28 181
3 28 38 181
3 38 27 181
3 27 8 181
3 8 66 181
3 27 38 182
3 38 41 182
3 41 47 182
3 47 46 182
3 46 45 182
3 45 27 182
3 46 47 183
3 47 74 183
3 74 91 183
3 91 85 183
3 85 46 183
3 54 126 168
3 126 13 168
3 13 113 168
3 113 88 168
3 88 128 168
3 128 51 168
3 51 6 168
3 6 54 168
3 10 49 161
3 49 13 161
3 13 126 161
3 126 95 161
3 95 98 161
3 98 86 161
3 86 130 161
3 130 131 161
3 131 72 161
3 72 129 161
3 129 10 161
3 75 70 187
3 70 83 187
3 83 69 187
3 69 24 187
3 24 12 187
3 12 75 187
3 129 72 188
3 72 75 188
3 75 12 188
3 12 129 188
3 26 99 189
3 99 98 189
3 98 95 189
3 95 40 189
3 40 100 189
3 100 102 189
3 102 26 189
3 14 37 169
3 37 101 169
3 101 100 169
3 100 40 169
3 40 14 169
3 99 26 190
3 26 63 190
3 63 33 190
3 33 0 190
3 0 99 190
3 102 78 191
3 78 77 191
3 77 79 191
3 79 76 191
3 76 63 191
3 63 26 191
3 26 102 191
3 0 33 192
3 33 16 192
3 16 87 192
3 87 90 192
3 90 0 192
3 86 90 193
3 90 87 193
3 87 130 193
3 130 86 193
3 51 73 208
3 73 42 208
3 42 6 208
3 6 51 208
3 50 78 194
3 78 102 194
3 102 100 194
3 100 101 194
3 101 50 194
3 94 50 207
3 50 101 207
3 101 37 207
3 37 42 207
3 42 73 207
3 73 17 207
3 17 94 207
3 13 49 180
3 49 127 180
3 127 124 180
3 124 113 180
3 113 13 180
3 129 12 195
3 12 24 195
3 24 10 195
3 10 129 195
3 6 42 170
3 42 37 170
3 37 14 170
3 14 54 170
3 54 6 170
3 70 75 196
3 75 72 196
3 72 131 196
3 131 80 196
3 80 70 196
3 16 43 197
3 43 80 197
3 80 131 197
3 131 130 197
3 130 87 197
3 87 16 197
3 14 40 166
3 40 95 166
3 95 126 166
3 126 54 166
3 54 14 166
3 0 90 198
3 90 86 198
3 86 98 198
3 98 99 198
3 99 0 198
3 81 82 199
3 82 79 199
3 79 77 199
3 77 30 199
3 30 81 199
3 20 30 200
3 30 77 200
3 77 78 200
3 78 50 200
3 50 94 200
3 94 125 200
3 125 20 200
3 128 88 177
3 88 55 177
3 55 125 177
3 125 94 177
3 94 17 177
3 17 128 177
3 16 33 201
3 33 63 201
3 63 76 201
3 76 43 201
3 43 16 201
3 10 24 202
3 24 69 202
3 69 81 202
3 81 30 202
3 30 20 202
3 20 127 202
3 127 49 202
3 49 10 202
3 20 125 206
3 125 55 206
3 55 124 206
3 124 127 206
3 127 20 206
3 43 76 203
3 76 79 203
3 79 82 203
3 82 83 203
3 83 70 203
3 70 80 203
3 80 43 203
3 83 82 204
3 82 81 204
3 81 69 204
3 69 83 204
3 55 88 178
3 88 113 178
3 113 124 178
3 124 55 178
3 17 73 209
3 73 51 209
3 51 128 209
3 128 17 209
CELL_TYPES 452
5
5
5
5
5
5
5
5
5
5
5
5
5
5
5
5
5
5
5
5
5
5
5
5
5
5
5
5
5
5
5
5
5
5
5
5
5
5
5
5
5
5
5
5
5
5
5
5
5
5
5
5
5
5
5
5
5
5
5
5
5
5
5
5
5
5
5
5
5
5
5
5
5
5
5
5
5
5
5
5
5
5
5
5
5
5
5
5
5
5
5
5
5
5
5
5
5
5
5
5
5
5
5
5
5
5
5
5
5
5
5
5
5
5
5
5
5
5
5
5
5
5
5
5
5
5
5
5
5
5
5
5
5
5
5
5
5
5
5
5
5
5
5
5
5
5
5
5
5
5
5
5
5
5
5
5
5
5
5
5
5
5
5
5
5
5
5
5
5
5
5
5
5
5
5
5
5
5
5
5
5
5
5
5
5
5
5
5
5
5
5
5
5
5
5
5
5
5
5
5
5
5
5
5
5
5
5
5
5
5
5
5
5
5
5
5
5
5
5
5
5
5
5
5
5
5
5
5
5
5
5
5
5
5
5
5
5
5
5
5
5
5
5
5
5
5
5
5
5
5
5
5
5
5
5
5
5
5
5
5
5
5
5
5
5
5
5
5
5
5
5
5
5
5
5
5
5
5
5
5
5
5
5
5
5
5
5
5
5
5
5
5
5
5
5
5
5
5
5
5
5
5
5
5
5
5
5
5
5
5
5
5
5
5
5
5
5
5
5
5
5
5
5
5
5
5
5
5
5
5
5
5
5
5
5
5
5
5
5
5
5
5
5
5
5
5
5
5
5
5
5
5
5
5
5
5
5
5
5
5
5
5
5
5
5
5
5
5
5
5
5
5
5
5
5
5
5
5
5
5
5
5
5
5
5
5
5
5
5
5
5
5
5
5
5
5
5
5
5
5
5
5
5
5
5
5
5
5
5
5
5
5
5
5
5
5
5
5
5
5
5
5
5
5
5
5
5
5
5
5
5
5
5
5
5
5
5
5
5
5
5
5
5
5
5
5
5
5
5
5
5
5
CELL_DATA 452 
SCALARS RelVolChange double 
LOOKUP_TABLE default 
-0.095796
-0.095796
-0.095796
-0.095796
-0.095796
-0.095796
-0.095796
-0.095796
-0.095796
-0.095796
-0.095796
-0.095796
-0.095796
-0.095796
-0.095796
-0.095796
-0.095796
-0.095796
-0.095796
-0.095796
-0.095796
-0.095796
-0.095796
-0.095796
-0.095796
-0.095796
-0.095796
-0.095796
-0.095796
-0.095796
-0.095796
-0.095796
-0.095796
-0.095796
-0.095796
-0.095796
-0.095796
-0.095796
-0.095796
-0.095796
-0.095796
-0.095796
-0.095796
-0.095796
-0.095796
-0.095796
-0.095796
-0.095796
-0.095796
-0.095796
-0.095796
-0.095796
-0.095796
-0.095796
-0.095796
-0.095796
-0.095796
-0.095796
-0.095796
-0.095796
-0.095796
-0.095796
-0.095796
-0.095796
-0.095796
-0.095796
-0.095796
-0.095796
-0.095796
-0.095796
-0.095796
-0.095796
-0.095796
-0.095796
-0.095796
-0.095796
-0.095796
-0.095796
-0.095796
-0.095796
-0.095796
-0.095796
-0.095796
-0.095796
-0.095796
-0.095796
-0.095796
-0.095796
-0.095796
-0.095796
-0.095796
-0.095796
-0.095796
-0.095796
-0.095796
-0.095796
-0.095796
-0.095796
-0.095796
-0.095796
-0.095796
-0.095796
-0.095796
-0.095796
-0.095796
-0.095796
-0.095796
-0.095796
-0.095796
-0.095796
-0.095796
-0.095796
-0.095796
-0.095796
-0.095796
-0.095796
-0.095796
-0.095796
-0.095796
-0.095796
-0.095796
-0.095796
-0.095796
-0.095796
-0.095796
-0.095796
-0.095796
-0.095796
-0.095796
-0.095796
-0.095796
-0.095796
-0.095796
-0.095796
-0.095796
-0.095796
-0.095796
-0.095796
-0.095796
-0.095796
-0.095796
-0.095796
-0.095796
-0.095796
-0.095796
-0.095796
-0.095796
-0.095796
-0.095796
-0.095796
-0.095796
-0.095796
-0.095796
-0.095796
-0.095796
-0.095796
-0.095796
-0.095796
-0.095796
-0.095796
-0.095796
-0.095796
-0.095796
-0.095796
-0.095796
-0.095796
-0.095796
-0.095796
-0.095796
-0.095796
-0.095796
-0.095796
-0.095796
-0.095796
-0.095796
-0.095796
-0.095796
-0.095796
-0.083950
-0.083950
-0.083950
-0.083950
-0.083950
-0.083950
-0.083950
-0.083950
-0.083950
-0.083950
-0.083950
-0.083950
-0.083950
-0.083950
-0.083950
-0.083950
-0.083950
-0.083950
-0.083950
-0.083950
-0.083950
-0.083950
-0.083950
-0.083950
-0.083950
-0.083950
-0.083950
-0.083950
-0.083950
-0.083950
-0.083950
-0.083950
-0.083950
-0.083950
-0.083950
-0.083950
-0.083950
-0.083950
-0.083950
-0.083950
-0.083950
-0.083950
-0.083950
-0.083950
-0.083950
-0.083950
-0.083950
-0.083950
-0.083950
-0.083950
-0.083950
-0.083950
-0.083950
-0.083950
-0.083950
-0.083950
-0.083950
-0.083950
-0.083950
-0.083950
-0.083950
-0.083950
-0.083950
-0.083950
-0.083950
-0.083950
-0.083950
-0.083950
-0.083950
-0.083950
-0.083950
-0.083950
-0.083950
-0.083950
-0.083950
-0.083950
-0.083950
-0.083950
-0.083950
-0.083950
-0.083950
-0.083950
-0.083950
-0.083950
-0.083950
-0.083950
-0.083950
-0.083950
-0.083950
-0.083950
-0.083950
-0.083950
-0.083950
-0.083950
-0.083950
-0.083950
-0.083950
-0.083950
-0.083950
-0.083950
-0.083950
-0.083950
-0.083950
-0.083950
-0.083950
-0.083950
-0.096408
-0.096408
-0.096408
-0.096408
-0.096408
-0.096408
-0.096408
-0.096408
-0.096408
-0.096408
-0.096408
-0.096408
-0.096408
-0.096408
-0.096408
-0.096408
-0.096408
-0.096408
-0.096408
-0.096408
-0.096408
-0.096408
-0.096408
-0.096408
-0.096408
-0.096408
-0.096408
-0.096408
-0.096408
-0.096408
-0.096408
-0.096408
-0.096408
-0.096408
-0.096408
-0.096408
-0.096408
-0.096408
-0.096408
-0.096408
-0.096408
-0.096408
-0.096408
-0.096408
-0.096408
-0.096408
-0.096408
-0.096408
-0.096408
-0.096408
-0.096408
-0.096408
-0.096408
-0.096408
-0.096408
-0.096408
-0.096408
-0.096408
-0.096408
-0.096408
-0.096408
-0.096408
-0.096408
-0.096408
-0.096408
-0.096408
-0.096408
-0.096408
-0.096408
-0.096408
-0.096408
-0.096408
-0.096408
-0.096408
-0.096408
-0.096408
-0.096408
-0.096408
-0.096408
-0.096408
-0.096408
-0.096408
-0.096408
-0.096408
-0.096408
-0.096408
-0.096408
-0.096408
-0.096408
-0.096408
-0.096408
-0.096408
-0.096408
-0.096408
-0.096408
-0.096408
-0.096408
-0.096408
-0.096408
-0.096408
-0.096408
-0.096408
-0.096408
-0.096408
-0.096408
-0.096408
-0.096408
-0.096408
-0.096408
-0.096408
-0.096408
-0.096408
-0.096408
-0.096408
-0.096408
-0.096408
-0.096408
-0.096408
-0.096408
-0.096408
-0.096408
-0.096408
-0.096408
-0.096408
-0.096408
-0.096408
-0.096408
-0.096408
-0.096408
-0.096408
-0.096408
-0.096408
-0.096408
-0.096408
-0.096408
-0.096408
-0.096408
-0.096408
-0.096408
-0.096408
-0.096408
-0.096408
-0.096408
-0.096408
-0.096408
-0.096408
-0.096408
-0.096408
-0.096408
-0.096408
-0.096408
-0.096408
-0.096408
-0.096408
-0.096408
-0.096408
-0.096408
-0.096408
-0.096408
-0.096408
-0.096408
-0.096408
-0.096408
-0.096408
-0.096408
-0.096408
-0.096408
-0.096408
SCALARS RelAreaChange double 
LOOKUP_TABLE default 
-0.052652
-0.052652
-0.052652
-0.052652
-0.052652
-0.052652
-0.052652
-0.052652
-0.052652
-0.052652
-0.052652
-0.052652
-0.052652
-0.052652
-0.052652
-0.052652
-0.052652
-0.052652
-0.052652
-0.052652
-0.052652
-0.052652
-0.052652
-0.052652
-0.052652
-0.052652
-0.052652
-0.052652
-0.052652
-0.052652
-0.052652
-0.052652
-0.052652
-0.052652
-0.052652
-0.052652
-0.052652
-0.052652
-0.052652
-0.052652
-0.052652
-0.052652
-0.052652
-0.052652
-0.052652
-0.052652
-0.052652
-0.052652
-0.052652
-0.052652
-0.052652
-0.052652
-0.052652
-0.052652
-0.052652
-0.052652
-0.052652
-0.052652
-0.052652
-0.052652
-0.052652
-0.052652
-0.052652
-0.052652
-0.052652
-0.052652
-0.052652
-0.052652
-0.052652
-0.052652
-0.052652
-0.052652
-0.052652
-0.052652
-0.052652
-0.052652
-0.052652
-0.052652
-0.052652
-0.052652
-0.052652
-0.052652
-0.052652
-0.052652
-0.052652
-0.052652
-0.052652
-0.052652
-0.052652
-0.052652
-0.052652
-0.052652
-0.052652
-0.052652
-0.052652
-0.052652
-0.052652
-0.052652
-0.052652
-0.052652
-0.052652
-0.052652
-0.052652
-0.052652
-0.052652
-0.052652
-0.052652
-0.052652
-0.052652
-0.052652
-0.052652
-0.052652
-0.052652
-0.052652
-0.052652
-0.052652
-0.052652
-0.052652
-0.052652
-0.052652
-0.052652
-0.052652
-0.052652
-0.052652
-0.052652
-0.052652
-0.052652
-0.052652
-0.052652
-0.052652
-0.052652
-0.052652
-0.052652
-0.052652
-0.052652
-0.052652
-0.052652
-0.052652
-0.052652
-0.052652
-0.052652
-0.052652
-0.052652
-0.052652
-0.052652
-0.052652
-0.052652
-0.052652
-0.052652
-0.052652
-0.052652
-0.052652
-0.052652
-0.052652
-0.052652
-0.052652
-0.052652
-0.052652
-0.052652
-0.052652
-0.052652
-0.052652
-0.052652
-0.052652
-0.052652
-0.052652
-0.052652
-0.052652
-0.052652
-0.052652
-0.052652
-0.052652
-0.052652
-0.052652
-0.052652
-0.052652
-0.052652
-0.052652
-0.088031
-0.088031
-0.088031
-0.088031
-0.088031
-0.088031
-0.088031
-0.088031
-0.088031
-0.088031
-0.088031
-0.088031
-0.088031
-0.088031
-0.088031
-0.088031
-0.088031
-0.088031
-0.088031
-0.088031
-0.088031
-0.088031
-0.088031
-0.088031
-0.088031
-0.088031
-0.088031
-0.088031
-0.088031
-0.088031
-0.088031
-0.088031
-0.088031
-0.088031
-0.088031
-0.088031
-0.088031
-0.088031
-0.088031
-0.088031
-0.088031
-0.088031
-0.088031
-0.088031
-0.088031
-0.088031
-0.088031
-0.088031
-0.088031
-0.088031
-0.088031
-0.088031
-0.088031
-0.088031
-0.088031
-0.088031
-0.088031
-0.088031
-0.088031
-0.088031
-0.088031
-0.088031
-0.088031
-0.088031
-0.088031
-0.088031
-0.088031
-0.088031
-0.088031
-0.088031
-0.088031
-0.088031
-0.088031
-0.088031
-0.088031
-0.088031
-0.088031
-0.088031
-0.088031
-0.088031
-0.088031
-0.088031
-0.088031
-0.088031
-0.088031
-0.088031
-0.088031
-0.088031
-0.088031
-0.088031
-0.088031
-0.088031
-0.088031
-0.088031
-0.088031
-0.088031
-0.088031
-0.088031
-0.088031
-0.088031
-0.088031
-0.088031
-0.088031
-0.088031
-0.088031
-0.088031
-0.052551
-0.052551
-0.052551
-0.052551
-0.052551
-0.052551
-0.052551
-0.052551
-0.052551
-0.052551
-0.052551
-0.052551
-0.052551
-0.052551
-0.052551
-0.052551
-0.052551
-0.052551
-0.052551
-0.052551
-0.052551
-0.052551
-0.052551
-0.052551
-0.052551
-0.052551
-0.052551
-0.052551
-0.052551
-0.052551
-0.052551
-0.052551
-0.052551
-0.052551
-0.052551
-0.052551
-0.052551
-0.052551
-0.052551
-0.052551
-0.052551
-0.052551
-0.052551
-0.052551
-0.052551
-0.052551
-0.052551
-0.052551
-0.052551
-0.052551
-0.052551
-0.052551
-0.052551
-0.052551
-0.052551
-0.052551
-0.052551
-0.052551
-0.052551
-0.052551
-0.052551
-0.052551
-0.052551
-0.052551
-0.052551
-0.052551
-0.052551
-0.052551
-0.052551
-0.052551
-0.052551
-0.052551
-0.052551
-0.052551
-0.052551
-0.052551
-0.052551
-0.052551
-0.052551
-0.052551
-0.052551
-0.052551
-0.052551
-0.052551
-0.052551
-0.052551
-0.052551
-0.052551
-0.052551
-0.052551
-0.052551
-0.052551
-0.052551
-0.052551
-0.052551
-0.052551
-0.052551
-0.052551
-0.052551
-0.052551
-0.052551
-0.052551
-0.052551
-0.052551
-0.052551
-0.052551
-0.052551
-0.052551
-0.052551
-0.052551
-0.052551
-0.052551
-0.052551
-0.052551
-0.052551
-0.052551
-0.052551
-0.052551
-0.052551
-0.052551
-0.052551
-0.052551
-0.052551
-0.052551
-0.052551
-0.052551
-0.052551
-0.052551
-0.052551
-0.052551
-0.052551
-0.052551
-0.052551
-0.052551
-0.052551
-0.052551
-0.052551
-0.052551
-0.052551
-0.052551
-0.052551
-0.052551
-0.052551
-0.052551
-0.052551
-0.052551
-0.052551
-0.052551
-0.052551
-0.052551
-0.052551
-0.052551
-0.052551
-0.052551
-0.052551
-0.052551
-0.052551
-0.052551
-0.052551
-0.052551
-0.052551
-0.052551
-0.052551
-0.052551
-0.052551
-0.052551
-0.052551
-0.052551
SCALARS TriAreaChange double 
LOOKUP_TABLE default 
113.746045
126.149640
138.255943
238.734727
143.849301
131.679160
123.321668
113.158089
110.396784
110.856817
124.405783
105.434471
322.504283
130.809039
128.085095
32.426339
32.712857
35.459903
37.667458
41.055638
40.813660
5.410636
4.263082
37.601686
49.488989
47.613503
17.590578
12.097199
11.828713
15.829364
34.603860
38.608056
40.145476
48.013876
31.086740
57.799641
44.758737
19.884325
22.803258
40.199875
43.156861
30.799560
30.691476
27.827250
15.250119
14.497551
19.472068
28.772842
20.891973
25.846809
14.877355
12.589186
40.537307
33.886134
36.394773
39.286954
40.033366
37.523699
24.344064
25.290492
24.108883
39.359343
41.265457
38.068545
20.592469
17.859119
19.777293
27.976360
24.812899
29.562440
27.645387
27.868274
34.634039
36.116871
35.634943
36.693508
12.631243
15.286688
5.148088
50.664025
47.327912
21.654450
22.409125
25.600076
28.980269
23.967226
26.369208
3.552937
46.315170
43.878546
48.456928
38.473816
34.620660
44.576355
43.005494
28.876718
26.989048
19.955370
19.479326
26.295328
19.820485
18.402132
18.788317
20.647178
24.097301
19.306413
24.567081
23.983034
25.316682
16.586774
17.865472
15.459981
12.008069
14.873145
28.114225
23.801499
21.657775
22.083723
24.573907
44.167817
39.478772
37.522931
32.692210
32.191558
39.751968
41.545237
32.580077
30.999781
56.038101
53.609439
46.015384
49.055071
31.625362
14.462189
3.307002
10.993790
8.749841
11.892993
13.418120
18.794948
16.310833
40.357767
38.825452
36.809788
33.393032
46.884823
3.229109
29.282952
51.188255
50.176369
33.669002
33.748391
35.577750
25.858392
44.758538
32.023312
46.360003
32.070020
2.962408
3.278596
39.962380
15.914084
15.973925
27.520535
25.702782
24.089083
37.458079
32.910177
39.485904
39.719070
37.171992
37.535395
39.333926
25.143565
21.746311
25.003690
32.362327
29.781242
131.679160
143.849301
238.734727
138.255943
126.149640
113.746045
123.321668
49.392195
16.577355
50.802811
55.080735
52.171717
43.939905
108.306419
280.193531
106.481224
60.569020
48.959293
23.343643
31.766518
36.167567
25.813860
71.693889
68.661194
60.681984
60.713055
62.047210
73.478229
49.116666
49.212554
33.778436
45.901037
38.657362
52.403095
15.157597
18.398646
9.710456
30.755166
26.792809
28.499877
38.252328
36.362437
26.227578
27.019191
53.040698
45.313736
28.226377
29.688522
50.173333
25.587778
28.945177
16.943052
14.562677
82.540913
65.928611
61.295353
71.807753
60.209434
62.646193
74.920678
51.028315
48.468723
61.575591
32.410534
34.811345
45.229697
2.396771
40.906778
29.290362
30.078289
9.441371
36.805602
59.632217
74.809817
82.284765
79.291351
62.877671
55.741163
78.534210
77.385852
36.107123
41.045137
32.744844
27.854087
46.336631
33.994681
71.072362
41.549314
77.026473
96.596196
80.130102
77.546734
98.704385
87.146504
68.437388
73.417403
66.223838
47.603815
47.107925
49.911482
69.141394
31.243009
30.265332
28.414915
32.503956
30.187443
130.809039
322.504283
105.434471
124.405783
110.856817
110.396784
113.158089
128.085095
60.569020
106.481224
280.193531
108.306419
43.939905
52.171717
55.080735
50.802811
16.577355
49.392195
48.959293
6.206144
6.985665
8.712315
11.918899
6.936707
5.143029
5.984071
2.904760
3.597201
7.525241
4.117155
3.630123
27.495326
42.179354
36.039259
41.856144
8.676729
43.303927
40.172052
31.653422
32.346460
43.942746
25.620546
12.530828
13.508411
10.595701
20.148994
33.234107
29.098143
23.156370
22.313821
22.694124
24.913613
8.298303
7.881395
6.606652
4.485834
6.198217
7.468550
10.169916
5.290383
3.111714
4.993342
34.506546
26.037725
33.663711
45.027790
38.639658
41.429919
33.027023
33.263649
34.697094
63.724867
57.001371
54.174485
46.473496
48.194532
51.063129
65.969712
35.859213
43.136396
38.852956
39.408899
38.673065
2.934539
7.080004
11.517184
4.867307
48.187413
35.985322
38.443759
42.523091
53.787521
3.846941
4.316111
4.167358
3.599124
3.939916
8.146684
6.743830
5.611618
6.214906
7.098957
5.920899
42.828263
46.772563
43.255278
45.856557
50.327656
10.726406
10.188461
13.523737
26.564491
19.266701
10.918020
12.484811
15.730308
24.770404
17.437753
29.255556
42.530513
43.675726
56.542325
64.012633
59.066811
56.566422
80.095009
63.213572
51.498455
64.032227
58.922186
71.112107
7.646762
8.988828
26.800772
40.361795
12.209073
31.321232
21.777313
22.590752
32.267550
30.371203
9.273951
9.159931
40.923345
36.488244
43.008538
38.065529
43.353450
41.692377
62.439648
40.023438
15.609716
8.150689
8.422663
13.889235
16.620816
3.840902
8.093120
9.104762
5.357974
37.206478
41.052103
31.233904
28.300822
30.073682
36.142766
50.541850
41.308245
