# vtk DataFile Version 3.98
Delaunay_vtk
ASCII
DATASET UNSTRUCTURED_GRID
POINTS 73 float
 -0.021761 -0.050540 0.006011
 -0.284087 0.812998 0.007766
 0.155350 1.464025 0.008841
 -10.000000 0.000000 0.000000
 -7.071068 0.000000 -7.071068
 -7.071068 0.000000 7.071068
 -0.000000 -10.000000 0.000000
 -0.000000 -7.071068 -7.071068
 -0.000000 -7.071068 7.071068
 -0.000000 0.000000 -10.000000
 0.000000 0.000000 10.000000
 0.000000 7.071068 7.071068
 0.000000 7.071068 -7.071068
 0.000000 10.000000 0.000000
 7.071068 -0.000000 7.071068
 7.071068 -0.000000 -7.071068
 10.000000 -0.000000 0.000000
 -0.534050 0.071084 -1.442141
 -0.767613 0.586343 -1.430842
 -1.829278 0.952930 -0.589357
 -1.290605 1.419584 -0.485990
 -0.996237 -0.431472 0.930497
 -0.208730 1.448097 -1.140445
 -0.811604 1.546802 -0.750965
 0.450450 1.282074 1.335386
 0.655348 0.792126 1.497177
 0.486823 1.498300 1.193296
 -1.485847 0.001447 -0.577696
 -1.714200 0.539930 -0.620733
 1.312543 1.716372 0.490221
 -0.189493 1.435976 1.078285
 -0.778274 1.569484 0.744101
 1.413578 0.616737 0.614629
 1.371579 0.038447 0.579372
 1.420752 1.325591 0.622233
 1.563415 0.685118 0.664885
 -0.792231 0.781481 -1.482840
 -0.624478 1.400562 -1.232506
 0.568623 0.590933 1.503926
 0.617429 0.047147 1.374008
 -0.494667 2.192346 -0.421259
 -0.613454 2.252725 0.473344
 -0.825991 0.770450 1.481543
 -0.555347 1.352529 1.261800
 -0.523763 0.057123 1.436750
 -0.805934 0.590615 1.408560
 -0.342085 -0.404946 -1.307345
 1.289831 1.714835 -0.505908
 1.472793 1.253818 -0.574135
 1.421211 0.650000 -0.744061
 0.562020 2.031981 0.836073
 -0.695933 -1.116603 -0.461514
 -0.661990 -1.111824 0.463426
 -1.028082 -0.435017 -0.907892
 -0.339677 -0.398930 1.307937
 0.383414 -0.407620 1.272878
 0.477921 1.291569 -1.288830
 0.651725 0.766554 -1.454811
 0.592510 2.002906 -0.955447
 0.424513 1.468043 -1.192496
 1.148814 -0.683228 0.450998
 0.395219 -0.993701 0.830350
 -1.390658 0.068670 0.596731
 -1.707885 0.543098 0.537632
 -1.765090 1.006337 0.633365
 -1.273254 1.465584 0.528080
 0.398887 -0.418882 -1.264888
 0.527811 0.615635 -1.521366
 0.647018 0.065871 -1.364056
 1.416647 0.685273 -0.602976
 1.430981 0.035736 -0.542996
 1.153023 -0.676520 -0.464730
 0.392981 -1.011132 -0.814491
CELLS 0 0
CELL_TYPES 0
CELL_DATA 0 
SCALARS RestLength double  
LOOKUP_TABLE default 
